TITLE = "Beamstick model"
VARIABLES = "X", "Y", "Z", "p_x", "p_y", "p_z"
ZONE I=43, J=1, K=1
0.0 21.742509 -1200.221122 -9016.883959828876 416.3208628118256 -16256.433891184133
0.0 24.08542 -1200.239306 -9693.978804719065 416.6549589094183 -17996.27252678273
0.0 26.428383 -1200.248841 -10783.567015651715 427.36185736799445 -20075.856517742228
0.0 28.771364 -1200.250237 -10695.816034722537 367.6857774012054 -20759.371890180508
0.0 31.114346 -1200.249713 -10905.236361763702 322.67842257759565 -22188.580194867413
0.0 33.457327 -1200.248108 -11142.200449063688 323.9181757281219 -23486.51310021732
0.0 35.800307 -1200.245636 -11443.743260078865 329.2713498440267 -24933.707194784234
0.0 38.143287 -1200.242395 -11580.205568469868 330.27510161138827 -26523.867958739702
0.0 40.486265 -1200.238365 -11608.355868216899 342.0053621506518 -27858.836718281116
0.0 42.829243 -1200.234058 -11632.503488970795 356.14312506531985 -29055.377225713597
0.0 45.172218 -1200.228519 -11559.630860825311 368.7907670973714 -30059.278685760924
0.0 47.515178 -1200.21831 -11535.639284406165 381.37366048924264 -31276.55609485394
0.0 49.858077 -1200.198621 -11382.362214145123 401.21637179231817 -32265.424871132214
0.0 52.200844 -1200.16696 -11248.50985205231 445.63009365117665 -33599.28778475899
0.0 54.543374 -1200.120947 -11060.198077483385 498.55724718886944 -34083.70272501807
0.0 56.885748 -1200.067549 -11219.269041323849 586.527370069957 -35313.221878246666
0.0 59.22796 -1200.007508 -11294.879557981038 683.4583720381563 -36179.58957068111
0.0 61.570048 -1199.942804 -11154.882177437226 788.9496537864312 -36940.0294875526
0.0 63.912097 -1199.876677 -11183.65026717012 900.2618442623598 -37735.0497585287
0.0 66.253963 -1199.804404 -11420.266889762013 996.7694821745127 -38320.22078316854
0.0 68.595318 -1199.717089 -11437.111931922223 1071.8878930884616 -38593.04532881803
0.0 70.93615 -1199.616754 -11465.439658550817 1269.2652363689276 -41037.65010411405
0.0 73.276354 -1199.502691 -11532.893417422834 1306.7269574725524 -40328.87187574786
0.0 75.616135 -1199.380278 -11635.883623231892 1405.230568246027 -41560.076564710755
0.0 77.955525 -1199.250579 -10655.91677001792 1480.2443528858828 -41663.50363632128
0.0 80.294706 -1199.117182 -10084.864751254036 1565.8654445126826 -42493.19618187258
0.0 82.633755 -1198.981493 -9240.211459510281 1586.2352223597481 -41999.69771928317
0.0 84.97268 -1198.843681 -7819.60340663373 1642.5919836931332 -42470.00077967396
0.0 87.311111 -1198.697712 -7451.696327393731 1602.6556845150292 -40554.48625316929
0.0 89.649013 -1198.543515 -6635.055493079293 1615.371266447868 -39381.957579367394
0.0 91.986434 -1198.382187 -5319.607760345842 1687.6778608393527 -39627.292624418646
0.0 94.323381 -1198.214136 -6049.1175115803735 1801.4672020422167 -40178.443168787584
0.0 96.659945 -1198.040837 -5993.660814792533 1840.7344639373805 -38022.186199401964
0.0 98.996146 -1197.86271 -5240.097399366597 1739.3622327804794 -33037.76139311687
0.0 101.332023 -1197.680381 -5063.695528183084 1791.0930757036674 -31758.71843162144
0.0 103.667528 -1197.493352 -5631.917449541345 1939.8371180833517 -33528.991933404206
0.0 106.002448 -1197.299155 -5450.738584948673 1950.5429150184248 -33492.20199855722
0.0 108.336791 -1197.098141 -5331.42670973118 1860.596016276549 -31073.050506371466
0.0 110.670556 -1196.890534 -4609.319857741954 1637.4721000751922 -26814.5381056996
0.0 113.003759 -1196.676695 -3483.95222818997 1362.3446406097307 -22282.717379008856
0.0 115.336379 -1196.456581 -2018.3337631442669 1022.9293450812024 -16579.85814828733
0.0 117.668478 -1196.231022 -1644.2670440180716 737.8345970979825 -12682.35033693459
0.0 120.000042 -1195.999996 -422.81632591084076 330.2699147253391 -3500.159719928652
